13
Lattice="3.599021730834192 0.0 0.0 0.0 3.599021730834192 0.0 0.0 0.0 3.599021730834192" Properties=species:S:1:pos:R:3:stresses:R:6:energies:R:1:forces:R:3 stress="0.0031525771577058607 -0.0005067477038325685 0.0006361225606818534 -0.0005067477038325685 0.0008339417008367337 -0.0008716288297592367 0.0006361225606818534 -0.0008716288297592367 0.0008548413270280332" energy=-43.89928270187236 free_energy=-43.89928270187236 pbc="F F F"
Fe      -5.43498970       0.70449677      -0.91706401       0.01221813       0.02005384       0.00748467       0.00322769      -0.01078678       0.00269964      -3.19129305      -0.00751664       0.02851620       0.01024932
Fe      -4.55644993      -0.01149135      -1.00913179       0.01980929       0.01544680       0.00402151      -0.00941716       0.00390793       0.00231548      -3.19186705       0.02074327      -0.01016909      -0.02352415
Fe      -4.37027568       1.10509408      -0.89606893       0.01797515       0.01416086       0.00797406       0.00931317       0.00638577      -0.00475482      -3.19105269       0.00165898      -0.02315605      -0.00188767
Fe      -3.72576710       0.35976409      -0.32639793       0.00026713       0.02062083       0.01965340      -0.00064157       0.00492449       0.00268187      -3.19209148      -0.06262046       0.05709159      -0.01540165
Fe      -5.17004439      -0.08523150       0.72423574       0.01794454       0.01385272       0.00814356       0.00924648       0.00624849      -0.00461316      -3.19192786       0.01556490       0.00348337      -0.01403404
Fe      -5.81439483       0.65952127       0.15459037      -0.00032943       0.02039932       0.01991318      -0.00064724       0.00501309       0.00297479      -3.19120927       0.00942662      -0.01111280       0.00990502
Fe      -4.98369234       1.03072942       0.83800149       0.02033108       0.01553744       0.00463757      -0.00956102       0.00387902       0.00213457      -3.19082120       0.00929068       0.02425492      -0.04520669
Fe      -4.77029710       0.51016932      -0.08597235      -0.15813340      -0.15882541      -0.15877775      -0.00012007       0.00011653       0.00007438      -5.60102695       0.08598825      -0.07873839       0.05423976
Fe      -4.09144791       1.30684061       0.18783975       0.01224520       0.00903363       0.01950496      -0.00436802      -0.00373704      -0.01056787      -3.19089084      -0.02486779      -0.05091459       0.02129463
Fe      -4.39248773      -0.49973997       0.00483980       0.01805115       0.00094478       0.02044155       0.00170059      -0.00067866       0.00717008      -3.19257969      -0.02821369      -0.01003329      -0.00640225
Fe      -5.14817757       1.51952020      -0.17677585       0.01819803       0.00077270       0.02110680       0.00176370      -0.00054827       0.00742692      -3.19051453       0.01844547       0.01000371       0.01720959
Fe      -4.10480961       0.31417444       0.74463187       0.01259859       0.02030273       0.00744543       0.00281529      -0.01051533       0.00241314      -3.19201575      -0.04822244       0.05410538      -0.01174764
Fe      -5.44880900      -0.28691900      -0.35982731       0.01197712       0.00853369       0.01930590      -0.00418348      -0.00357312      -0.01046176      -3.19199234       0.01032285       0.00666903       0.00530576
